/*--------------------------------*- C++ -*----------------------------------*\
  =========                 |
  \\      /  F ield         | OpenFOAM: The Open Source CFD Toolbox
   \\    /   O peration     | Website:  https://openfoam.org
    \\  /    A nd           | Version:  8
     \\/     M anipulation  |
\*---------------------------------------------------------------------------*/
FoamFile
{
    version     2.0;
    format      ascii;
    class       volScalarField;
    location    "0.5";
    object      p;
}
// * * * * * * * * * * * * * * * * * * * * * * * * * * * * * * * * * * * * * //

dimensions      [0 2 -2 0 0 0 0];

internalField   nonuniform List<scalar> 
400
(
8.70114e-14
-9.74695e-07
-2.59159e-06
-4.37046e-06
-6.23483e-06
-8.17068e-06
-1.01546e-05
-1.2168e-05
-1.42013e-05
-1.62502e-05
-1.83142e-05
-2.03953e-05
-2.24965e-05
-2.46214e-05
-2.67702e-05
-2.89337e-05
-3.10908e-05
-3.32426e-05
-3.54019e-05
-3.6909e-05
-2.68709e-07
-1.25997e-06
-2.92081e-06
-4.67305e-06
-6.48173e-06
-8.35774e-06
-1.02846e-05
-1.22438e-05
-1.42257e-05
-1.62259e-05
-1.82439e-05
-2.02791e-05
-2.2332e-05
-2.44037e-05
-2.64935e-05
-2.85929e-05
-3.06801e-05
-3.27786e-05
-3.49778e-05
-3.65897e-05
-4.42e-07
-1.37105e-06
-3.06559e-06
-4.82894e-06
-6.61177e-06
-8.4536e-06
-1.03444e-05
-1.22656e-05
-1.42086e-05
-1.61698e-05
-1.81493e-05
-2.01473e-05
-2.21631e-05
-2.41965e-05
-2.62473e-05
-2.83087e-05
-3.0362e-05
-3.24499e-05
-3.47149e-05
-3.64099e-05
-5.96332e-07
-1.40645e-06
-3.11863e-06
-4.89927e-06
-6.66786e-06
-8.48675e-06
-1.03519e-05
-1.22437e-05
-1.41547e-05
-1.60826e-05
-1.80288e-05
-1.9994e-05
-2.19781e-05
-2.39821e-05
-2.60077e-05
-2.80494e-05
-3.00898e-05
-3.21829e-05
-3.44919e-05
-3.62041e-05
-7.40934e-07
-1.4158e-06
-3.12837e-06
-4.92345e-06
-6.68073e-06
-8.47999e-06
-1.03229e-05
-1.21889e-05
-1.40713e-05
-1.59692e-05
-1.78852e-05
-1.98205e-05
-2.17747e-05
-2.37509e-05
-2.57542e-05
-2.77812e-05
-2.98147e-05
-3.19118e-05
-3.42373e-05
-3.5933e-05
-8.44005e-07
-1.38821e-06
-3.09378e-06
-4.90145e-06
-6.65039e-06
-8.43388e-06
-1.02588e-05
-1.21033e-05
-1.39607e-05
-1.58321e-05
-1.77216e-05
-1.96309e-05
-2.15597e-05
-2.35109e-05
-2.54916e-05
-2.7502e-05
-2.95258e-05
-3.16193e-05
-3.39409e-05
-3.56053e-05
-8.74809e-07
-1.30761e-06
-3.00701e-06
-4.82698e-06
-6.5712e-06
-8.34486e-06
-1.01586e-05
-1.19878e-05
-1.3826e-05
-1.56758e-05
-1.75425e-05
-1.94293e-05
-2.13371e-05
-2.32685e-05
-2.52291e-05
-2.72199e-05
-2.92272e-05
-3.1306e-05
-3.36087e-05
-3.52421e-05
-8.12482e-07
-1.16259e-06
-2.86277e-06
-4.69689e-06
-6.44184e-06
-8.21289e-06
-1.00227e-05
-1.1844e-05
-1.36701e-05
-1.55049e-05
-1.7354e-05
-1.92216e-05
-2.11106e-05
-2.30245e-05
-2.49669e-05
-2.69366e-05
-2.89212e-05
-3.09748e-05
-3.3248e-05
-3.48598e-05
-6.43183e-07
-9.46624e-07
-2.65881e-06
-4.51179e-06
-6.2651e-06
-8.04101e-06
-9.85313e-06
-1.16726e-05
-1.34935e-05
-1.53204e-05
-1.71588e-05
-1.90121e-05
-2.08842e-05
-2.27798e-05
-2.47021e-05
-2.66488e-05
-2.86068e-05
-3.06286e-05
-3.28664e-05
-3.44724e-05
-3.63284e-07
-6.59665e-07
-2.3986e-06
-4.27587e-06
-6.04446e-06
-7.83141e-06
-9.65097e-06
-1.14742e-05
-1.32959e-05
-1.51215e-05
-1.69557e-05
-1.88005e-05
-2.06589e-05
-2.25358e-05
-2.44352e-05
-2.63562e-05
-2.8286e-05
-3.02728e-05
-3.24728e-05
-3.40925e-05
1.93292e-08
-3.10148e-07
-2.09096e-06
-3.99575e-06
-5.7831e-06
-7.58502e-06
-9.41688e-06
-1.12502e-05
-1.30802e-05
-1.49111e-05
-1.67464e-05
-1.85874e-05
-2.04358e-05
-2.22955e-05
-2.41718e-05
-2.60665e-05
-2.79679e-05
-2.99181e-05
-3.20787e-05
-3.37326e-05
4.88443e-07
8.6304e-08
-1.74888e-06
-3.68174e-06
-5.48871e-06
-7.30794e-06
-9.15657e-06
-1.10067e-05
-1.28525e-05
-1.4695e-05
-1.65352e-05
-1.83743e-05
-2.0215e-05
-2.20608e-05
-2.39173e-05
-2.57881e-05
-2.76623e-05
-2.95741e-05
-3.16942e-05
-3.34012e-05
1.02302e-06
5.12503e-07
-1.38565e-06
-3.34548e-06
-5.17294e-06
-7.01176e-06
-8.88042e-06
-1.07516e-05
-1.26172e-05
-1.44745e-05
-1.63213e-05
-1.81599e-05
-1.99954e-05
-2.1832e-05
-2.36743e-05
-2.55253e-05
-2.73732e-05
-2.92443e-05
-3.13228e-05
-3.31028e-05
1.59874e-06
9.51917e-07
-1.01257e-06
-2.9962e-06
-4.84559e-06
-6.70693e-06
-8.59767e-06
-1.04902e-05
-1.23748e-05
-1.42461e-05
-1.61008e-05
-1.79429e-05
-1.97793e-05
-2.16137e-05
-2.34475e-05
-2.52808e-05
-2.71017e-05
-2.89307e-05
-3.09685e-05
-3.28417e-05
2.18727e-06
1.38597e-06
-6.41417e-07
-2.64235e-06
-4.51422e-06
-6.40066e-06
-8.31459e-06
-1.02269e-05
-1.21266e-05
-1.40094e-05
-1.58746e-05
-1.77277e-05
-1.95739e-05
-2.14124e-05
-2.32402e-05
-2.50561e-05
-2.68506e-05
-2.86398e-05
-3.06412e-05
-3.26252e-05
2.7556e-06
1.79412e-06
-2.85327e-07
-2.29471e-06
-4.18751e-06
-6.09902e-06
-8.03446e-06
-9.96358e-06
-1.18758e-05
-1.37706e-05
-1.56516e-05
-1.75238e-05
-1.93857e-05
-2.12297e-05
-2.30513e-05
-2.48526e-05
-2.66267e-05
-2.83806e-05
-3.03494e-05
-3.24602e-05
3.26352e-06
2.15545e-06
4.39582e-08
-1.9646e-06
-3.87552e-06
-5.80907e-06
-7.76063e-06
-9.70247e-06
-1.16282e-05
-1.35409e-05
-1.54452e-05
-1.73399e-05
-1.92161e-05
-2.10645e-05
-2.28832e-05
-2.46768e-05
-2.64374e-05
-2.81595e-05
-3.00953e-05
-3.23386e-05
3.68472e-06
2.46597e-06
3.53932e-07
-1.64727e-06
-3.57545e-06
-5.52708e-06
-7.49098e-06
-9.44648e-06
-1.13921e-05
-1.33305e-05
-1.52607e-05
-1.71756e-05
-1.90636e-05
-2.09187e-05
-2.27427e-05
-2.45365e-05
-2.62872e-05
-2.79836e-05
-2.98885e-05
-3.22495e-05
4.01966e-06
2.7747e-06
7.0555e-07
-1.29283e-06
-3.24749e-06
-5.22332e-06
-7.20767e-06
-9.18849e-06
-1.11651e-05
-1.31342e-05
-1.50895e-05
-1.70238e-05
-1.89274e-05
-2.07953e-05
-2.26318e-05
-2.44382e-05
-2.6191e-05
-2.78699e-05
-2.97663e-05
-3.22704e-05
4.39636e-06
3.18275e-06
1.1767e-06
-8.42487e-07
-2.84597e-06
-4.86458e-06
-6.88817e-06
-8.91084e-06
-1.093e-05
-1.29366e-05
-1.49201e-05
-1.68751e-05
-1.88005e-05
-2.06964e-05
-2.25597e-05
-2.43837e-05
-2.61517e-05
-2.78521e-05
-2.98017e-05
-3.25544e-05
)
;

boundaryField
{
    movingWall
    {
        type            zeroGradient;
    }
    bottomWall
    {
        type            zeroGradient;
    }
    leftSide
    {
        type            zeroGradient;
    }
    rightSide
    {
        type            zeroGradient;
    }
    frontAndBack
    {
        type            empty;
    }
}


// ************************************************************************* //
