/*--------------------------------*- C++ -*----------------------------------*\
  =========                 |
  \\      /  F ield         | OpenFOAM: The Open Source CFD Toolbox
   \\    /   O peration     | Website:  https://openfoam.org
    \\  /    A nd           | Version:  8
     \\/     M anipulation  |
\*---------------------------------------------------------------------------*/
FoamFile
{
    version     2.0;
    format      ascii;
    class       surfaceScalarField;
    location    "0.5";
    object      phi;
}
// * * * * * * * * * * * * * * * * * * * * * * * * * * * * * * * * * * * * * //

dimensions      [0 3 -1 0 0 0 0];

internalField   nonuniform List<scalar> 
760
(
1.22918e-06
-7.29942e-12
1.22918e-06
-6.91144e-12
1.22919e-06
-5.4902e-12
1.22919e-06
-4.33089e-12
1.2292e-06
-3.35433e-12
1.2292e-06
-2.51448e-12
1.2292e-06
-1.77473e-12
1.2292e-06
-1.13713e-12
1.2292e-06
-5.92648e-13
1.2292e-06
-1.14235e-13
1.2292e-06
3.30039e-13
1.2292e-06
7.68484e-13
1.2292e-06
1.23578e-12
1.2292e-06
1.77658e-12
1.2292e-06
2.43248e-12
1.22919e-06
3.23755e-12
1.22919e-06
4.23993e-12
1.22918e-06
5.67994e-12
1.22918e-06
8.29212e-12
1.05366e-11
3.68802e-06
-1.67054e-11
3.68802e-06
-1.64889e-11
3.68803e-06
-1.42161e-11
3.68804e-06
-1.176e-11
3.68805e-06
-9.38415e-12
3.68805e-06
-7.17512e-12
3.68805e-06
-5.14438e-12
3.68806e-06
-3.32483e-12
3.68806e-06
-1.70639e-12
3.68806e-06
-2.39056e-13
3.68806e-06
1.14982e-12
3.68806e-06
2.5464e-12
3.68805e-06
4.04619e-12
3.68805e-06
5.74992e-12
3.68804e-06
7.75229e-12
3.68804e-06
1.01344e-11
3.68803e-06
1.29756e-11
3.68802e-06
1.64415e-11
3.688e-06
2.13644e-11
2.50677e-11
6.14835e-06
-2.38548e-11
6.14836e-06
-2.39069e-11
6.14836e-06
-2.1383e-11
6.14837e-06
-1.82406e-11
6.14838e-06
-1.48603e-11
6.14838e-06
-1.15208e-11
6.14838e-06
-8.32396e-12
6.14839e-06
-5.36084e-12
6.14839e-06
-2.6442e-12
6.14839e-06
-1.16844e-13
6.14839e-06
2.31978e-12
6.14838e-06
4.79383e-12
6.14838e-06
7.45265e-12
6.14838e-06
1.04465e-11
6.14837e-06
1.39038e-11
6.14836e-06
1.79112e-11
6.14835e-06
2.24876e-11
6.14834e-06
2.75785e-11
6.14833e-06
3.38473e-11
3.81878e-11
8.61117e-06
-2.7394e-11
8.61117e-06
-2.77128e-11
8.61117e-06
-2.53919e-11
8.61118e-06
-2.20843e-11
8.61118e-06
-1.82363e-11
8.61118e-06
-1.42312e-11
8.61119e-06
-1.02575e-11
8.61119e-06
-6.4583e-12
8.61119e-06
-2.87818e-12
8.61119e-06
5.25392e-13
8.61119e-06
3.86052e-12
8.61118e-06
7.27701e-12
8.61118e-06
1.09472e-11
8.61117e-06
1.50433e-11
8.61117e-06
1.97015e-11
8.61116e-06
2.49795e-11
8.61115e-06
3.08054e-11
8.61114e-06
3.69119e-11
8.61113e-06
4.38807e-11
4.85164e-11
1.10774e-05
-2.72384e-11
1.10774e-05
-2.77545e-11
1.10774e-05
-2.5841e-11
1.10774e-05
-2.27096e-11
1.10774e-05
-1.88451e-11
1.10774e-05
-1.46528e-11
1.10774e-05
-1.03614e-11
1.10774e-05
-6.14607e-12
1.10774e-05
-2.07895e-12
1.10774e-05
1.86412e-12
1.10774e-05
5.78603e-12
1.10774e-05
9.83881e-12
1.10774e-05
1.41951e-11
1.10774e-05
1.90228e-11
1.10774e-05
2.44465e-11
1.10774e-05
3.04824e-11
1.10774e-05
3.69778e-11
1.10774e-05
4.35299e-11
1.10773e-05
5.07564e-11
5.55756e-11
1.35479e-05
-2.36497e-11
1.35479e-05
-2.42922e-11
1.35478e-05
-2.2879e-11
1.35478e-05
-2.0117e-11
1.35478e-05
-1.65708e-11
1.35478e-05
-1.26034e-11
1.35478e-05
-8.43593e-12
1.35478e-05
-4.24598e-12
1.35478e-05
-1.18478e-13
1.35478e-05
3.95541e-12
1.35478e-05
8.06597e-12
1.35478e-05
1.23545e-11
1.35478e-05
1.6979e-11
1.35478e-05
2.20879e-11
1.35478e-05
2.77803e-11
1.35478e-05
3.40397e-11
1.35478e-05
4.06667e-11
1.35478e-05
4.72109e-11
1.35478e-05
5.43764e-11
5.93072e-11
1.60233e-05
-1.71534e-11
1.60233e-05
-1.78613e-11
1.60233e-05
-1.69843e-11
1.60233e-05
-1.46857e-11
1.60233e-05
-1.16844e-11
1.60233e-05
-8.26337e-12
1.60233e-05
-4.59826e-12
1.60233e-05
-8.40598e-13
1.60233e-05
2.93354e-12
1.60233e-05
6.72756e-12
1.60233e-05
1.06173e-11
1.60233e-05
1.4725e-11
1.60233e-05
1.91841e-11
1.60233e-05
2.41193e-11
1.60232e-05
2.96043e-11
1.60232e-05
3.5607e-11
1.60232e-05
4.19178e-11
1.60232e-05
4.81055e-11
1.60232e-05
5.49759e-11
5.99546e-11
1.85043e-05
-8.44826e-12
1.85043e-05
-9.17776e-12
1.85043e-05
-8.83798e-12
1.85043e-05
-7.04133e-12
1.85043e-05
-4.72707e-12
1.85043e-05
-2.08248e-12
1.85043e-05
7.84862e-13
1.85043e-05
3.77453e-12
1.85043e-05
6.83934e-12
1.85043e-05
9.99038e-12
1.85043e-05
1.32923e-11
1.85043e-05
1.6845e-11
1.85043e-05
2.07548e-11
1.85043e-05
2.51209e-11
1.85043e-05
2.99964e-11
1.85043e-05
3.53488e-11
1.85043e-05
4.09967e-11
1.85043e-05
4.65705e-11
1.85043e-05
5.29733e-11
5.79303e-11
2.09914e-05
1.64401e-12
2.09914e-05
9.32932e-13
2.09914e-05
7.47216e-13
2.09914e-05
2.03109e-12
2.09914e-05
3.57475e-12
2.09914e-05
5.29378e-12
2.09914e-05
7.15895e-12
2.09914e-05
9.13837e-12
2.09914e-05
1.1228e-11
2.09914e-05
1.3458e-11
2.09914e-05
1.5888e-11
2.09914e-05
1.85955e-11
2.09914e-05
2.16604e-11
2.09914e-05
2.51578e-11
2.09914e-05
2.9128e-11
2.09914e-05
3.35483e-11
2.09914e-05
3.82882e-11
2.09914e-05
4.30675e-11
2.09914e-05
4.8876e-11
5.37426e-11
2.34849e-05
1.22388e-11
2.34849e-05
1.15746e-11
2.34849e-05
1.08802e-11
2.34849e-05
1.16453e-11
2.34849e-05
1.23771e-11
2.34848e-05
1.30915e-11
2.34848e-05
1.3842e-11
2.34848e-05
1.46737e-11
2.34848e-05
1.56327e-11
2.34848e-05
1.67741e-11
2.34848e-05
1.81577e-11
2.34848e-05
1.98408e-11
2.34848e-05
2.18788e-11
2.34848e-05
2.43249e-11
2.34848e-05
2.72121e-11
2.34848e-05
3.05353e-11
2.34848e-05
3.4224e-11
2.34848e-05
3.81025e-11
2.34848e-05
4.32271e-11
4.79511e-11
2.59849e-05
2.24272e-11
2.59849e-05
2.18132e-11
2.59849e-05
2.0633e-11
2.59849e-05
2.08677e-11
2.59849e-05
2.07786e-11
2.59849e-05
2.04743e-11
2.59849e-05
2.00889e-11
2.59849e-05
1.97438e-11
2.59848e-05
1.95364e-11
2.59848e-05
1.95453e-11
2.59848e-05
1.98321e-11
2.59848e-05
2.04356e-11
2.59848e-05
2.13885e-11
2.59848e-05
2.27249e-11
2.59848e-05
2.44723e-11
2.59849e-05
2.66482e-11
2.59849e-05
2.92426e-11
2.59849e-05
3.21877e-11
2.59849e-05
3.6582e-11
4.11243e-11
2.84915e-05
3.13059e-11
2.84914e-05
3.07343e-11
2.84914e-05
2.90825e-11
2.84914e-05
2.87696e-11
2.84914e-05
2.78779e-11
2.84914e-05
2.66057e-11
2.84914e-05
2.51553e-11
2.84914e-05
2.37145e-11
2.84914e-05
2.24247e-11
2.84914e-05
2.13827e-11
2.84914e-05
2.0648e-11
2.84914e-05
2.02423e-11
2.84914e-05
2.01769e-11
2.84914e-05
2.0467e-11
2.84914e-05
2.11343e-11
2.84914e-05
2.22189e-11
2.84914e-05
2.37684e-11
2.84914e-05
2.58161e-11
2.84914e-05
2.94877e-11
3.38125e-11
3.10044e-05
3.80306e-11
3.10044e-05
3.74877e-11
3.10044e-05
3.536e-11
3.10044e-05
3.44783e-11
3.10044e-05
3.28348e-11
3.10044e-05
3.07153e-11
3.10044e-05
2.83656e-11
3.10043e-05
2.60206e-11
3.10043e-05
2.38497e-11
3.10043e-05
2.19574e-11
3.10043e-05
2.03938e-11
3.10043e-05
1.91639e-11
3.10044e-05
1.82592e-11
3.10044e-05
1.76752e-11
3.10044e-05
1.74245e-11
3.10044e-05
1.75653e-11
3.10044e-05
1.81983e-11
3.10044e-05
1.94465e-11
3.10044e-05
2.24516e-11
2.65461e-11
3.35234e-05
4.18716e-11
3.35234e-05
4.13187e-11
3.35234e-05
3.87043e-11
3.35234e-05
3.72416e-11
3.35233e-05
3.4949e-11
3.35233e-05
3.21841e-11
3.35233e-05
2.92012e-11
3.35233e-05
2.6249e-11
3.35233e-05
2.35022e-11
3.35233e-05
2.10603e-11
3.35233e-05
1.8957e-11
3.35234e-05
1.71798e-11
3.35234e-05
1.57021e-11
3.35234e-05
1.44994e-11
3.35234e-05
1.3571e-11
3.35234e-05
1.29869e-11
3.35234e-05
1.28941e-11
3.35234e-05
1.34984e-11
3.35234e-05
1.59346e-11
1.98225e-11
3.60479e-05
4.2257e-11
3.60479e-05
4.16223e-11
3.60479e-05
3.85311e-11
3.60479e-05
3.65205e-11
3.60479e-05
3.37675e-11
3.60479e-05
3.0651e-11
3.60479e-05
2.73958e-11
3.60479e-05
2.42229e-11
3.60479e-05
2.12856e-11
3.60479e-05
1.86637e-11
3.60479e-05
1.63713e-11
3.60479e-05
1.43795e-11
3.60479e-05
1.26459e-11
3.60479e-05
1.1127e-11
3.60479e-05
9.80795e-12
3.6048e-05
8.76673e-12
3.6048e-05
8.18428e-12
3.6048e-05
8.34188e-12
3.6048e-05
1.03503e-11
1.4068e-11
3.85775e-05
3.88409e-11
3.85775e-05
3.80327e-11
3.85775e-05
3.45414e-11
3.85775e-05
3.21184e-11
3.85775e-05
2.92145e-11
3.85775e-05
2.61445e-11
3.85775e-05
2.30513e-11
3.85775e-05
2.00904e-11
3.85775e-05
1.7377e-11
3.85775e-05
1.49648e-11
3.85775e-05
1.28487e-11
3.85775e-05
1.09839e-11
3.85775e-05
9.31586e-12
3.85775e-05
7.78981e-12
3.85775e-05
6.38086e-12
3.85775e-05
5.17256e-12
3.85775e-05
4.36569e-12
3.85775e-05
4.27961e-12
3.85775e-05
6.00732e-12
9.62987e-12
4.11112e-05
3.1633e-11
4.11112e-05
3.05556e-11
4.11112e-05
2.68943e-11
4.11112e-05
2.43814e-11
4.11112e-05
2.17707e-11
4.11113e-05
1.92126e-11
4.11113e-05
1.6728e-11
4.11113e-05
1.43952e-11
4.11113e-05
1.22818e-11
4.11113e-05
1.042e-11
4.11113e-05
8.79049e-12
4.11113e-05
7.33586e-12
4.11113e-05
6.00543e-12
4.11113e-05
4.75775e-12
4.11113e-05
3.55047e-12
4.11113e-05
2.43015e-12
4.11113e-05
1.62875e-12
4.11113e-05
1.54441e-12
4.11113e-05
3.17749e-12
6.72281e-12
4.36484e-05
2.11881e-11
4.36484e-05
1.99226e-11
4.36484e-05
1.65442e-11
4.36484e-05
1.44716e-11
4.36484e-05
1.26571e-11
4.36484e-05
1.10329e-11
4.36484e-05
9.50735e-12
4.36484e-05
8.09607e-12
4.36485e-05
6.82413e-12
4.36485e-05
5.71111e-12
4.36485e-05
4.74618e-12
4.36485e-05
3.88483e-12
4.36485e-05
3.07985e-12
4.36485e-05
2.2852e-12
4.36485e-05
1.47491e-12
4.36485e-05
7.03828e-13
4.36485e-05
1.44876e-13
4.36485e-05
2.09132e-13
4.36485e-05
1.92026e-12
5.23038e-12
4.6188e-05
8.97371e-12
4.6188e-05
7.99437e-12
4.61881e-05
5.8835e-12
4.61881e-05
4.82898e-12
4.61881e-05
4.12372e-12
4.61881e-05
3.56316e-12
4.61881e-05
3.04802e-12
4.61881e-05
2.56653e-12
4.61881e-05
2.1294e-12
4.61881e-05
1.76049e-12
4.61881e-05
1.4497e-12
4.61881e-05
1.15516e-12
4.61881e-05
8.71751e-13
4.61881e-05
6.04943e-13
4.61881e-05
3.09257e-13
4.61881e-05
-1.38895e-14
4.61881e-05
-2.20321e-13
4.61881e-05
3.55529e-14
4.61881e-05
1.57753e-12
4.7741e-12
4.87292e-05
4.87292e-05
4.87292e-05
4.87292e-05
4.87292e-05
4.87292e-05
4.87292e-05
4.87292e-05
4.87292e-05
4.87292e-05
4.87292e-05
4.87292e-05
4.87292e-05
4.87292e-05
4.87292e-05
4.87292e-05
4.87292e-05
4.87292e-05
4.87292e-05
)
;

boundaryField
{
    movingWall
    {
        type            calculated;
        value           uniform 0;
    }
    bottomWall
    {
        type            calculated;
        value           uniform 0;
    }
    leftSide
    {
        type            calculated;
        value           nonuniform List<scalar> 
20
(
-1.22917e-06
-3.68801e-06
-6.14834e-06
-8.61116e-06
-1.10774e-05
-1.35479e-05
-1.60233e-05
-1.85043e-05
-2.09914e-05
-2.34849e-05
-2.59849e-05
-2.84915e-05
-3.10044e-05
-3.35234e-05
-3.60479e-05
-3.85774e-05
-4.11112e-05
-4.36484e-05
-4.6188e-05
-4.87292e-05
)
;
    }
    rightSide
    {
        type            calculated;
        value           nonuniform List<scalar> 
20
(
1.22916e-06
3.68799e-06
6.14832e-06
8.61112e-06
1.10773e-05
1.35478e-05
1.60232e-05
1.85043e-05
2.09914e-05
2.34849e-05
2.59849e-05
2.84914e-05
3.10044e-05
3.35234e-05
3.6048e-05
3.85775e-05
4.11113e-05
4.36485e-05
4.61881e-05
4.87292e-05
)
;
    }
    frontAndBack
    {
        type            empty;
        value           nonuniform List<scalar> 0();
    }
}


// ************************************************************************* //
