/*--------------------------------*- C++ -*----------------------------------*\
  =========                 |
  \\      /  F ield         | OpenFOAM: The Open Source CFD Toolbox
   \\    /   O peration     | Website:  https://openfoam.org
    \\  /    A nd           | Version:  8
     \\/     M anipulation  |
\*---------------------------------------------------------------------------*/
FoamFile
{
    version     2.0;
    format      ascii;
    class       volVectorField;
    location    "0.5";
    object      U;
}
// * * * * * * * * * * * * * * * * * * * * * * * * * * * * * * * * * * * * * //

dimensions      [0 1 -1 0 0 0 0];

internalField   nonuniform List<vector> 
400
(
(0.0245835 -7.61078e-08 0)
(0.0245836 -6.59653e-08 0)
(0.0245837 -5.1742e-08 0)
(0.0245838 -3.94591e-08 0)
(0.0245839 -2.97959e-08 0)
(0.024584 -2.19022e-08 0)
(0.024584 -1.51995e-08 0)
(0.024584 -9.6118e-09 0)
(0.0245841 -5.01273e-09 0)
(0.0245841 -1.11547e-09 0)
(0.0245841 2.4261e-09 0)
(0.024584 5.8593e-09 0)
(0.024584 9.51374e-09 0)
(0.024584 1.38821e-08 0)
(0.024584 1.9349e-08 0)
(0.0245839 2.6102e-08 0)
(0.0245838 3.46832e-08 0)
(0.0245837 4.8317e-08 0)
(0.0245836 7.3807e-08 0)
(0.0245834 1.05742e-07 0)
(0.0737602 -2.4064e-07 0)
(0.0737604 -2.35515e-07 0)
(0.0737606 -1.95638e-07 0)
(0.0737608 -1.57884e-07 0)
(0.0737609 -1.2386e-07 0)
(0.073761 -9.3591e-08 0)
(0.0737611 -6.65568e-08 0)
(0.0737611 -4.29341e-08 0)
(0.0737612 -2.24024e-08 0)
(0.0737612 -4.15799e-09 0)
(0.0737612 1.28385e-08 0)
(0.0737611 2.97512e-08 0)
(0.0737611 4.78771e-08 0)
(0.073761 6.86904e-08 0)
(0.0737609 9.35975e-08 0)
(0.0737608 1.23833e-07 0)
(0.0737607 1.61033e-07 0)
(0.0737605 2.10307e-07 0)
(0.0737602 2.89055e-07 0)
(0.0737599 3.47145e-07 0)
(0.122967 -4.21056e-07 0)
(0.122967 -4.17789e-07 0)
(0.122967 -3.67119e-07 0)
(0.122967 -3.08619e-07 0)
(0.122967 -2.48765e-07 0)
(0.122968 -1.91592e-07 0)
(0.122968 -1.38073e-07 0)
(0.122968 -8.93986e-08 0)
(0.122968 -4.55713e-08 0)
(0.122968 -5.36339e-09 0)
(0.122968 3.30253e-08 0)
(0.122968 7.17116e-08 0)
(0.122968 1.1321e-07 0)
(0.122968 1.60166e-07 0)
(0.122967 2.14978e-07 0)
(0.122967 2.79532e-07 0)
(0.122967 3.55044e-07 0)
(0.122967 4.42719e-07 0)
(0.122967 5.57892e-07 0)
(0.122966 6.41783e-07 0)
(0.172223 -5.32309e-07 0)
(0.172223 -5.35346e-07 0)
(0.172223 -4.85138e-07 0)
(0.172224 -4.18513e-07 0)
(0.172224 -3.43703e-07 0)
(0.172224 -2.67795e-07 0)
(0.172224 -1.93874e-07 0)
(0.172224 -1.24339e-07 0)
(0.172224 -5.97268e-08 0)
(0.172224 9.74913e-10 0)
(0.172224 5.99518e-08 0)
(0.172224 1.20112e-07 0)
(0.172224 1.84742e-07 0)
(0.172224 2.57089e-07 0)
(0.172223 3.39878e-07 0)
(0.172223 4.34794e-07 0)
(0.172223 5.41394e-07 0)
(0.172223 6.56287e-07 0)
(0.172223 7.915e-07 0)
(0.172223 8.8247e-07 0)
(0.221548 -5.6617e-07 0)
(0.221548 -5.7385e-07 0)
(0.221548 -5.30602e-07 0)
(0.221548 -4.64863e-07 0)
(0.221548 -3.85748e-07 0)
(0.221548 -3.01417e-07 0)
(0.221548 -2.16338e-07 0)
(0.221548 -1.33875e-07 0)
(0.221548 -5.52523e-08 0)
(0.221548 2.02027e-08 0)
(0.221548 9.46521e-08 0)
(0.221548 1.71233e-07 0)
(0.221548 2.53558e-07 0)
(0.221548 3.45121e-07 0)
(0.221547 4.48472e-07 0)
(0.221547 5.64242e-07 0)
(0.221547 6.90125e-07 0)
(0.221547 8.19099e-07 0)
(0.221547 9.63096e-07 0)
(0.221547 1.05891e-06 0)
(0.270957 -5.26024e-07 0)
(0.270957 -5.37354e-07 0)
(0.270957 -5.03547e-07 0)
(0.270957 -4.43925e-07 0)
(0.270957 -3.68415e-07 0)
(0.270957 -2.84923e-07 0)
(0.270957 -1.98198e-07 0)
(0.270957 -1.11905e-07 0)
(0.270957 -2.77222e-08 0)
(0.270957 5.4625e-08 0)
(0.270957 1.37062e-07 0)
(0.270957 2.22554e-07 0)
(0.270957 3.14497e-07 0)
(0.270956 4.16195e-07 0)
(0.270956 5.29955e-07 0)
(0.270956 6.55554e-07 0)
(0.270956 7.89239e-07 0)
(0.270956 9.22134e-07 0)
(0.270956 1.06752e-06 0)
(0.270956 1.16585e-06 0)
(0.320466 -4.21803e-07 0)
(0.320466 -4.35068e-07 0)
(0.320466 -4.11968e-07 0)
(0.320466 -3.6097e-07 0)
(0.320466 -2.94518e-07 0)
(0.320465 -2.19234e-07 0)
(0.320465 -1.39221e-07 0)
(0.320465 -5.78626e-08 0)
(0.320465 2.31488e-08 0)
(0.320465 1.03877e-07 0)
(0.320465 1.85961e-07 0)
(0.320465 2.72007e-07 0)
(0.320465 3.64889e-07 0)
(0.320465 4.67363e-07 0)
(0.320465 5.8127e-07 0)
(0.320465 7.06139e-07 0)
(0.320465 8.37575e-07 0)
(0.320465 9.66478e-07 0)
(0.320465 1.10799e-06 0)
(0.320465 1.20778e-06 0)
(0.370087 -2.65577e-07 0)
(0.370087 -2.79814e-07 0)
(0.370086 -2.67565e-07 0)
(0.370086 -2.26445e-07 0)
(0.370086 -1.72708e-07 0)
(0.370086 -1.11134e-07 0)
(0.370086 -4.46049e-08 0)
(0.370086 2.42811e-08 0)
(0.370086 9.42142e-08 0)
(0.370086 1.65283e-07 0)
(0.370086 2.38889e-07 0)
(0.370085 3.17256e-07 0)
(0.370085 4.02725e-07 0)
(0.370085 4.9747e-07 0)
(0.370085 6.0273e-07 0)
(0.370085 7.17935e-07 0)
(0.370085 8.39078e-07 0)
(0.370085 9.57925e-07 0)
(0.370085 1.09153e-06 0)
(0.370085 1.19154e-06 0)
(0.419829 -7.27238e-08 0)
(0.419828 -8.73137e-08 0)
(0.419828 -8.57537e-08 0)
(0.419828 -5.49625e-08 0)
(0.419828 -1.61731e-08 0)
(0.419828 2.79594e-08 0)
(0.419828 7.6057e-08 0)
(0.419827 1.26717e-07 0)
(0.419827 1.79344e-07 0)
(0.419827 2.34279e-07 0)
(0.419827 2.92736e-07 0)
(0.419827 3.56532e-07 0)
(0.419827 4.27541e-07 0)
(0.419827 5.07463e-07 0)
(0.419827 5.97156e-07 0)
(0.419827 6.9602e-07 0)
(0.419827 8.00918e-07 0)
(0.419827 9.05239e-07 0)
(0.419827 1.02795e-06 0)
(0.419827 1.12671e-06 0)
(0.469698 1.39111e-07 0)
(0.469698 1.25152e-07 0)
(0.469698 1.1619e-07 0)
(0.469697 1.36619e-07 0)
(0.469697 1.59364e-07 0)
(0.469697 1.83853e-07 0)
(0.469697 2.10345e-07 0)
(0.469697 2.38923e-07 0)
(0.469697 2.69953e-07 0)
(0.469697 3.04231e-07 0)
(0.469697 3.429e-07 0)
(0.469697 3.87329e-07 0)
(0.469697 4.38942e-07 0)
(0.469697 4.99048e-07 0)
(0.469697 5.68326e-07 0)
(0.469697 6.4639e-07 0)
(0.469697 7.31186e-07 0)
(0.469697 8.18125e-07 0)
(0.469697 9.27825e-07 0)
(0.469697 1.02399e-06 0)
(0.519698 3.51799e-07 0)
(0.519698 3.38809e-07 0)
(0.519698 3.19833e-07 0)
(0.519698 3.29839e-07 0)
(0.519697 3.36207e-07 0)
(0.519697 3.40193e-07 0)
(0.519697 3.43696e-07 0)
(0.519697 3.48397e-07 0)
(0.519697 3.55741e-07 0)
(0.519697 3.67094e-07 0)
(0.519697 3.83668e-07 0)
(0.519697 4.06411e-07 0)
(0.519697 4.36239e-07 0)
(0.519697 4.74073e-07 0)
(0.519697 5.20502e-07 0)
(0.519697 5.75561e-07 0)
(0.519697 6.38394e-07 0)
(0.519697 7.066e-07 0)
(0.519697 8.01892e-07 0)
(0.519697 8.9476e-07 0)
(0.569829 5.47081e-07 0)
(0.569829 5.3479e-07 0)
(0.569829 5.06316e-07 0)
(0.569829 5.05598e-07 0)
(0.569829 4.95665e-07 0)
(0.569828 4.79503e-07 0)
(0.569828 4.60506e-07 0)
(0.569828 4.41842e-07 0)
(0.569828 4.25986e-07 0)
(0.569828 4.14799e-07 0)
(0.569828 4.09582e-07 0)
(0.569828 4.1093e-07 0)
(0.569828 4.19234e-07 0)
(0.569828 4.34956e-07 0)
(0.569828 4.58574e-07 0)
(0.569828 4.90644e-07 0)
(0.569828 5.31574e-07 0)
(0.569829 5.81142e-07 0)
(0.569829 6.6164e-07 0)
(0.569829 7.50573e-07 0)
(0.620088 7.07251e-07 0)
(0.620088 6.95608e-07 0)
(0.620087 6.57686e-07 0)
(0.620087 6.45756e-07 0)
(0.620087 6.20055e-07 0)
(0.620087 5.85374e-07 0)
(0.620087 5.46278e-07 0)
(0.620087 5.07081e-07 0)
(0.620087 4.71037e-07 0)
(0.620087 4.40299e-07 0)
(0.620087 4.16092e-07 0)
(0.620087 3.98679e-07 0)
(0.620087 3.87979e-07 0)
(0.620087 3.83998e-07 0)
(0.620087 3.87076e-07 0)
(0.620087 3.98287e-07 0)
(0.620087 4.19248e-07 0)
(0.620087 4.51637e-07 0)
(0.620088 5.18113e-07 0)
(0.620088 6.02277e-07 0)
(0.670467 8.1645e-07 0)
(0.670467 8.0505e-07 0)
(0.670467 7.57443e-07 0)
(0.670467 7.33901e-07 0)
(0.670467 6.93805e-07 0)
(0.670467 6.43683e-07 0)
(0.670467 5.88736e-07 0)
(0.670467 5.33995e-07 0)
(0.670467 4.83023e-07 0)
(0.670467 4.37962e-07 0)
(0.670467 3.99704e-07 0)
(0.670467 3.6814e-07 0)
(0.670467 3.42823e-07 0)
(0.670467 3.23415e-07 0)
(0.670467 3.10128e-07 0)
(0.670467 3.04418e-07 0)
(0.670467 3.0885e-07 0)
(0.670467 3.26629e-07 0)
(0.670468 3.80568e-07 0)
(0.670468 4.60132e-07 0)
(0.720958 8.61345e-07 0)
(0.720958 8.48976e-07 0)
(0.720958 7.91542e-07 0)
(0.720958 7.56427e-07 0)
(0.720958 7.04691e-07 0)
(0.720958 6.44057e-07 0)
(0.720958 5.79513e-07 0)
(0.720959 5.16096e-07 0)
(0.720959 4.57266e-07 0)
(0.720959 4.04827e-07 0)
(0.720959 3.59124e-07 0)
(0.720959 3.1963e-07 0)
(0.720959 2.85656e-07 0)
(0.720959 2.56652e-07 0)
(0.720959 2.32634e-07 0)
(0.720959 2.15143e-07 0)
(0.720959 2.07331e-07 0)
(0.720959 2.1386e-07 0)
(0.720959 2.57339e-07 0)
(0.720959 3.33285e-07 0)
(0.771549 8.32551e-07 0)
(0.771549 8.17229e-07 0)
(0.771549 7.50433e-07 0)
(0.771549 7.05096e-07 0)
(0.771549 6.46632e-07 0)
(0.771549 5.8242e-07 0)
(0.771549 5.1653e-07 0)
(0.77155 4.52954e-07 0)
(0.77155 3.94508e-07 0)
(0.77155 3.42418e-07 0)
(0.77155 2.96541e-07 0)
(0.77155 2.56084e-07 0)
(0.77155 2.20283e-07 0)
(0.77155 1.8837e-07 0)
(0.77155 1.59837e-07 0)
(0.77155 1.35928e-07 0)
(0.77155 1.20498e-07 0)
(0.77155 1.20221e-07 0)
(0.77155 1.56834e-07 0)
(0.77155 2.28828e-07 0)
(0.822224 7.23492e-07 0)
(0.822224 7.04336e-07 0)
(0.822225 6.30752e-07 0)
(0.822225 5.79338e-07 0)
(0.822225 5.21776e-07 0)
(0.822225 4.63134e-07 0)
(0.822225 4.05394e-07 0)
(0.822225 3.50843e-07 0)
(0.822225 3.01094e-07 0)
(0.822226 2.5679e-07 0)
(0.822226 2.17757e-07 0)
(0.822226 1.83268e-07 0)
(0.822226 1.52265e-07 0)
(0.822226 1.23353e-07 0)
(0.822226 9.58153e-08 0)
(0.822226 7.14614e-08 0)
(0.822226 5.4418e-08 0)
(0.822226 5.14122e-08 0)
(0.822226 8.40586e-08 0)
(0.822226 1.55504e-07 0)
(0.872968 5.41808e-07 0)
(0.872968 5.14813e-07 0)
(0.872968 4.41196e-07 0)
(0.872968 3.92797e-07 0)
(0.872968 3.46569e-07 0)
(0.872969 3.03512e-07 0)
(0.872969 2.62605e-07 0)
(0.872969 2.24509e-07 0)
(0.872969 1.90019e-07 0)
(0.872969 1.59715e-07 0)
(0.872969 1.3334e-07 0)
(0.872969 1.09738e-07 0)
(0.872969 8.79154e-08 0)
(0.872969 6.71481e-08 0)
(0.872969 4.63509e-08 0)
(0.87297 2.616e-08 0)
(0.87297 1.16765e-08 0)
(0.87297 1.14529e-08 0)
(0.87297 4.5389e-08 0)
(0.872969 1.1942e-07 0)
(0.923761 2.94146e-07 0)
(0.923761 2.75744e-07 0)
(0.923761 2.15691e-07 0)
(0.923761 1.82394e-07 0)
(0.923761 1.56865e-07 0)
(0.923762 1.35724e-07 0)
(0.923762 1.1627e-07 0)
(0.923762 9.82218e-08 0)
(0.923762 8.18683e-08 0)
(0.923762 6.77551e-08 0)
(0.923762 5.57878e-08 0)
(0.923762 4.50713e-08 0)
(0.923762 3.48351e-08 0)
(0.923762 2.43875e-08 0)
(0.923762 1.32142e-08 0)
(0.923762 2.13632e-09 0)
(0.923762 -5.69014e-09 0)
(0.923762 -1.12303e-09 0)
(0.923762 3.59572e-08 0)
(0.923762 1.01556e-07 0)
(0.974584 9.39176e-08 0)
(0.974584 7.06966e-08 0)
(0.974584 5.05536e-08 0)
(0.974584 3.91162e-08 0)
(0.974584 3.26139e-08 0)
(0.974584 2.80559e-08 0)
(0.974584 2.38075e-08 0)
(0.974584 1.95128e-08 0)
(0.974584 1.55616e-08 0)
(0.974584 1.26319e-08 0)
(0.974584 1.05505e-08 0)
(0.974584 8.34334e-09 0)
(0.974584 5.77968e-09 0)
(0.974584 3.23786e-09 0)
(0.974584 3.83007e-10 0)
(0.974584 -2.6747e-09 0)
(0.974584 -4.6659e-09 0)
(0.974584 -1.96601e-09 0)
(0.974584 1.58017e-08 0)
(0.974584 5.31765e-08 0)
)
;

boundaryField
{
    movingWall
    {
        type            fixedValue;
        value           uniform (1 0 0);
    }
    bottomWall
    {
        type            noSlip;
    }
    leftSide
    {
        type            zeroGradient;
    }
    rightSide
    {
        type            zeroGradient;
    }
    frontAndBack
    {
        type            empty;
    }
}


// ************************************************************************* //
